uio66-triclinic.lmpdat (written by mofun)

114 atoms
0 bonds
0 angles
0 dihedrals
0 impropers

4 atom types
   0.000000  14.834000 xlo xhi
   0.000000  12.846621 ylo yhi
   0.000000  12.111910 zlo zhi
   7.417000   7.417000   4.282207 xy xz yz

Masses

 1  12.010700   # C
 2   1.007940   # H
 3  15.999400   # O
 4  91.224000   # Zr

Atoms

 1 1 1   0.000000  17.839888  12.866790   3.948967   # C
 2 1 1   0.000000   9.843472   9.152661   9.732041   # C
 3 1 1   0.000000  23.310667   7.706816  11.761876   # C
 4 1 1   0.000000  15.363648  12.041095   5.070893   # C
 5 1 1   0.000000  20.466470   7.513732   5.085549   # C
 6 1 1   0.000000  20.117871  15.610443  11.768053   # C
 7 1 1   0.000000  20.674368  13.710727   9.728286   # C
 8 1 1   0.000000   5.072041   4.977980   3.933101   # C
 9 1 1   0.000000  13.745481  14.427012  11.771687   # C
 10 1 1   0.000000  13.947817   5.343423   5.065928   # C
 11 1 1   0.000000  12.012202   7.103539   3.954781   # C
 12 1 1   0.000000  26.626362  14.907604   9.765228   # C
 13 1 1   0.000000   6.327962   7.112189   3.947635   # C
 14 1 1   0.000000  21.362443  14.921778   9.741367   # C
 15 1 1   0.000000  19.430018  14.399092  11.755215   # C
 16 1 1   0.000000  19.210327   5.379822   5.071136   # C
 17 1 1   0.000000  17.839739  12.061649   5.085428   # C
 18 1 1   0.000000   9.869505   7.715937  11.748432   # C
 19 1 1   0.000000  23.284707   9.144011   9.745727   # C
 20 1 1   0.000000  15.363796  12.846235   3.934070   # C
 21 1 1   0.000000  27.882209  15.632668  11.772413   # C
 22 1 1   0.000000  12.716446   7.491293   5.092210   # C
 23 1 1   0.000000  13.243721   4.955670   3.928135   # C
 24 1 1   0.000000  12.489635  13.701606   9.764622   # C
 25 1 1   0.000000  21.119388   8.388972  10.752833   # C
 26 1 1   0.000000  16.626096  10.832185   6.912267   # C
 27 1 1   0.000000   9.208428   1.335406   2.182687   # C
 28 1 1   0.000000  12.081551   8.419761  10.705839   # C
 29 1 1   0.000000  18.951770  12.175000  10.707777   # C
 30 1 1   0.000000   6.857832   5.404873   2.179538   # C
 31 1 1   0.000000  18.796755   7.075405   6.914326   # C
 32 1 1   0.000000  14.403369   4.365025  10.752469   # C
 33 1 1   0.000000  11.507327   5.405944   2.180386   # C
 34 1 1   0.000000  18.793640   4.362969  10.752106   # C
 35 1 1   0.000000  14.277280  12.191957  10.748836   # C
 36 1 1   0.000000  14.431924   7.029714   6.914084   # C
 37 1 1   0.000000  16.624909  13.273557   3.372077   # C
 38 1 1   0.000000  10.585691   8.456674  10.746292   # C
 39 1 1   0.000000  22.614878   8.439031  10.773060   # C
 40 1 1   0.000000  16.624686  11.652442   5.660501   # C
 41 1 1   0.000000  19.505375   6.665683   5.661349   # C
 42 1 1   0.000000  21.116125  15.890970  10.773786   # C
 43 1 1   0.000000  19.730555  13.452382  10.748230   # C
 44 1 1   0.000000   6.071853   5.857031   3.370139   # C
 45 1 1   0.000000  13.490262  13.464586  10.780206   # C
 46 1 1   0.000000  13.716036   6.629756   5.661834   # C
 47 1 1   0.000000  12.298424   5.848381   3.371108   # C
 48 1 1   0.000000  26.920298  15.892298  10.781538   # C
 49 1 2   0.000000  18.770350  13.201016   3.496103   # H
 50 1 2   0.000000  10.395519   9.695088   8.968022   # H
 51 1 2   0.000000  15.341471   2.879442   0.412047   # H
 52 1 2   0.000000  14.433111  11.708796   5.525211   # H
 53 1 2   0.000000  20.658422   8.477314   5.551615   # H
 54 1 2   0.000000  12.509661  12.076081   0.422221   # H
 55 1 2   0.000000  20.863205  12.964253   8.960270   # H
 56 1 2   0.000000   4.881869   4.013370   3.468488   # H
 57 1 2   0.000000   7.083161   9.930738   0.412895   # H
 58 1 2   0.000000  14.693596   4.692057   5.515643   # H
 59 1 2   0.000000  11.264050   7.753535   3.507004   # H
 60 1 2   0.000000  25.873240  15.122657   9.010535   # H
 61 1 2   0.000000   7.082197   7.751052   3.494165   # H
 62 1 2   0.000000  22.107333  15.153660   8.983767   # H
 63 1 2   0.000000  11.266349   9.886117   0.399330   # H
 64 1 2   0.000000  18.457798   4.740061   5.526059   # H
 65 1 2   0.000000  18.770202  11.745237   5.551252   # H
 66 1 2   0.000000   3.025691   2.895971   0.387944   # H
 67 1 2   0.000000  22.711299   9.679672   8.992730   # H
 68 1 2   0.000000  14.433482  13.164532   3.469578   # H
 69 1 2   0.000000  20.656345  12.110938   0.413985   # H
 70 1 2   0.000000  12.537326   8.455004   5.563364   # H
 71 1 2   0.000000  13.420987   3.990974   3.458556   # H
 72 1 2   0.000000  12.299982  12.942071   9.009808   # H
 73 1 2   0.000000   9.132255   4.007803   1.964067   # H
 74 1 2   0.000000  13.756829   6.672835   9.505548   # H
 75 1 2   0.000000  19.351472   6.667096   9.506759   # H
 76 1 2   0.000000  16.553483  11.518323   9.499735   # H
 77 1 3   0.000000  10.350646   1.703762   1.729339   # O
 78 1 3   0.000000  12.639903   9.036142   9.713146   # O
 79 1 3   0.000000  20.514532   7.661725  11.666313   # O
 80 1 3   0.000000  15.440859  10.520697   7.411278   # O
 81 1 3   0.000000  19.103893   8.216913   7.412731   # O
 82 1 3   0.000000  14.050097   5.213801  11.664496   # O
 83 1 3   0.000000  19.185406  11.341768   9.717628   # O
 84 1 3   0.000000   6.582662   4.194978   1.719528   # O
 85 1 3   0.000000  15.167320  12.032745  11.658925   # O
 86 1 3   0.000000  15.245050   6.152247   7.410309   # O
 87 1 3   0.000000  10.575084   6.213782   1.724857   # O
 88 1 3   0.000000  17.931043   4.543165   9.764743   # O
 89 1 3   0.000000   7.745870   6.209200   1.724615   # O
 90 1 3   0.000000  15.218794   4.546162   9.765954   # O
 91 1 3   0.000000  18.016635  12.007223  11.614353   # O
 92 1 3   0.000000  17.933342   6.207016   7.412247   # O
 93 1 3   0.000000  17.766756  10.525451   7.409824   # O
 94 1 3   0.000000  12.645985   7.694698  11.614959   # O
 95 1 3   0.000000  20.506522   9.001713   9.766197   # O
 96 1 3   0.000000   8.024675   1.700336   1.721102   # O
 97 1 3   0.000000  19.098256   5.212431  11.662074   # O
 98 1 3   0.000000  14.086366   8.170622   7.413700   # O
 99 1 3   0.000000  11.731617   4.196734   1.720133   # O
 100 1 3   0.000000  14.001368  11.354272   9.764259   # O
 101 1 3   0.000000  18.560449   7.127391   9.830511   # O
 102 1 3   0.000000  16.555263  10.604072   9.825787   # O
 103 1 3   0.000000   9.135371   4.007974   0.993298   # O
 104 1 3   0.000000  14.549410   7.130517   9.829179   # O
 105 1 3   0.000000  15.100048   9.182122  11.276431   # O
 106 1 3   0.000000  16.598801   6.583208  11.281033   # O
 107 1 3   0.000000  16.601545   8.311978   8.829098   # O
 108 1 3   0.000000  18.098741   9.179639  11.278126   # O
 109 1 4   0.000000  10.951497   2.988809   0.013565   # Zr
 110 1 4   0.000000  14.791575   9.336068   9.190881   # Zr
 111 1 4   0.000000  18.374357   9.331914   9.196210   # Zr
 112 1 4   0.000000   7.369086   2.991207   0.009447   # Zr
 113 1 4   0.000000   9.163703   6.092296   0.003755   # Zr
 114 1 4   0.000000  16.580629   6.230997   9.199844   # Zr
