 (written by mofun)

8 atoms
0 bonds
0 angles
0 dihedrals
0 impropers

1 atom types

   0.000000  20.700400 xlo xhi
   0.000000  20.700400 ylo yhi
   0.000000  20.700400 zlo zhi

Masses

 1  15.999400   # O_2_M

Pair Coeffs

 1   0.060000   3.118146 # O_2_M

Atoms

 1 1 1   0.000000  19.539108  11.511492   9.188908   # O_3_f
 2 1 1   0.000000  19.539108   9.188908  11.511492   # O_3_f
 3 1 1   0.000000  19.539108  11.511492  11.511492   # O_3_f
 4 1 1   0.000000  19.539108   9.188908   9.188908   # O_3_f
 5 1 1   0.000000  21.861692   9.188908   9.188908   # O_3_f
 6 1 1   0.000000  21.861692  11.511492  11.511492   # O_3_f
 7 1 1   0.000000  21.861692   9.188908  11.511492   # O_3_f
 8 1 1   0.000000  21.861692  11.511492   9.188908   # O_3_f
